==========================================
#  UART ERROR FLAGS REGRESSION STARTED 
# ==========================================
# 
# ------------------------------------------
# PASS
# Time         = 47805
# Sent         = 00
# Received     = 00
# Parity Error  = 0
# Framing Error = 0
# ------------------------------------------
# ------------------------------------------
# PASS
# Time         = 95545
# Sent         = 55
# Received     = 55
# Parity Error  = 0
# Framing Error = 0
# ------------------------------------------
# ------------------------------------------
# PASS
# Time         = 143285
# Sent         = aa
# Received     = aa
# Parity Error  = 0
# Framing Error = 0
# ------------------------------------------
# ------------------------------------------
# PASS
# Time         = 191025
# Sent         = a5
# Received     = a5
# Parity Error  = 0
# Framing Error = 0
# ------------------------------------------
# ------------------------------------------
# PASS
# Time         = 238765
# Sent         = 3c
# Received     = 3c
# Parity Error  = 0
# Framing Error = 0
# ------------------------------------------
# ------------------------------------------
# PASS
# Time         = 286505
# Sent         = f0
# Received     = f0
# Parity Error  = 0
# Framing Error = 0
# ------------------------------------------
# ------------------------------------------
# PASS
# Time         = 334245
# Sent         = ff
# Received     = ff
# Parity Error  = 0
# Framing Error = 0
# ------------------------------------------
# 
# ==========================================
#  ERROR FLAGS REGRESSION SUMMARY 
# ==========================================
# PARITY MODE = NONE
# STOP_BITS    = 1
# PASS COUNT   = 7
# FAIL COUNT   = 0
# 
# ALL TEST CASES PASSED